ITEM: TIMESTEP
           1
ITEM: NUMBER OF ATOMS
         364
ITEM: BOX BOUNDS pp pp pp
          0.00000000         43.23800045   xlo xhi
          0.00000000         40.32560732   ylo yhi
          0.00000000        105.63000011   zlo zhi
ITEM: ATOMS id type x y z c_csym
           1           1          0.10000000          0.10000000         52.91500006          0.00000000
           2           1          1.76299999          1.06013351         51.70443222          0.00000000
           3           1          1.76299999          2.98040052         52.91500006          0.00000000
           4           1          0.10000000          3.94053403         51.70443222          0.00000000
           5           1          0.10000000          5.86080105         52.91500006          0.00000000
           6           1          1.76299999          6.82093456         51.70443222          0.00000000
           7           1          1.76299999          8.74120157         52.91500006          0.00000000
           8           1          0.10000000          9.70133508         51.70443222          0.00000000
           9           1          0.10000000         11.62160209         52.91500006          0.00000000
          10           1          1.76299999         12.58173560         51.70443222          0.00000000
          11           1          1.76299999         14.50200262         52.91500006          0.00000000
          12           1          0.10000000         15.46213613         51.70443222          0.00000000
          13           1          0.10000000         17.38240314         52.91500006          0.00000000
          14           1          1.76299999         18.34253665         51.70443222          0.00000000
          15           1          1.76299999         20.26280366         52.91500006          0.00000000
          16           1          0.10000000         21.22293717         51.70443222          0.00000000
          17           1          0.10000000         23.14320419         52.91500006          0.00000000
          18           1          1.76299999         24.10333769         51.70443222          0.00000000
          19           1          1.76299999         26.02360471         52.91500006          0.00000000
          20           1          0.10000000         26.98373822         51.70443222          0.00000000
          21           1          0.10000000         28.90400523         52.91500006          0.00000000
          22           1          1.76299999         29.86413874         51.70443222          0.00000000
          23           1          1.76299999         31.78440576         52.91500006          0.00000000
          24           1          0.10000000         32.74453926         51.70443222          0.00000000
          25           1          0.10000000         34.66480628         52.91500006          0.00000000
          26           1          1.76299999         35.62493979         51.70443222          0.00000000
          27           1          1.76299999         37.54520680         52.91500006          0.00000000
          28           1          0.10000000         38.50534031         51.70443222          0.00000000
          29           1          3.42600004          0.10000000         52.91500006          0.00000000
          30           1          5.08900002          1.06013351         51.70443222          0.00000000
          31           1          5.08900002          2.98040052         52.91500006          0.00000000
          32           1          3.42600004          3.94053403         51.70443222          0.00000000
          33           1          3.42600004          5.86080105         52.91500006          0.00000000
          34           1          5.08900002          6.82093456         51.70443222          0.00000000
          35           1          5.08900002          8.74120157         52.91500006          0.00000000
          36           1          3.42600004          9.70133508         51.70443222          0.00000000
          37           1          3.42600004         11.62160209         52.91500006          0.00000000
          38           1          5.08900002         12.58173560         51.70443222          0.00000000
          39           1          5.08900002         14.50200262         52.91500006          0.00000000
          40           1          3.42600004         15.46213613         51.70443222          0.00000000
          41           1          3.42600004         17.38240314         52.91500006          0.00000000
          42           1          5.08900002         18.34253665         51.70443222          0.00000000
          43           1          5.08900002         20.26280366         52.91500006          0.00000000
          44           1          3.42600004         21.22293717         51.70443222          0.00000000
          45           1          3.42600004         23.14320419         52.91500006          0.00000000
          46           1          5.08900002         24.10333769         51.70443222          0.00000000
          47           1          5.08900002         26.02360471         52.91500006          0.00000000
          48           1          3.42600004         26.98373822         51.70443222          0.00000000
          49           1          3.42600004         28.90400523         52.91500006          0.00000000
          50           1          5.08900002         29.86413874         51.70443222          0.00000000
          51           1          5.08900002         31.78440576         52.91500006          0.00000000
          52           1          3.42600004         32.74453926         51.70443222          0.00000000
          53           1          3.42600004         34.66480628         52.91500006          0.00000000
          54           1          5.08900002         35.62493979         51.70443222          0.00000000
          55           1          5.08900002         37.54520680         52.91500006          0.00000000
          56           1          3.42600004         38.50534031         51.70443222          0.00000000
          57           1          6.75200007          0.10000000         52.91500006          0.00000000
          58           1          8.41500006          1.06013351         51.70443222          0.00000000
          59           1          8.41500006          2.98040052         52.91500006          0.00000000
          60           1          6.75200007          3.94053403         51.70443222          0.00000000
          61           1          6.75200007          5.86080105         52.91500006          0.00000000
          62           1          8.41500006          6.82093456         51.70443222          0.00000000
          63           1          8.41500006          8.74120157         52.91500006          0.00000000
          64           1          6.75200007          9.70133508         51.70443222          0.00000000
          65           1          6.75200007         11.62160209         52.91500006          0.00000000
          66           1          8.41500006         12.58173560         51.70443222          0.00000000
          67           1          8.41500006         14.50200262         52.91500006          0.00000000
          68           1          6.75200007         15.46213613         51.70443222          0.00000000
          69           1          6.75200007         17.38240314         52.91500006          0.00000000
          70           1          8.41500006         18.34253665         51.70443222          0.00000000
          71           1          8.41500006         20.26280366         52.91500006          0.00000000
          72           1          6.75200007         21.22293717         51.70443222          0.00000000
          73           1          6.75200007         23.14320419         52.91500006          0.00000000
          74           1          8.41500006         24.10333769         51.70443222          0.00000000
          75           1          8.41500006         26.02360471         52.91500006          0.00000000
          76           1          6.75200007         26.98373822         51.70443222          0.00000000
          77           1          6.75200007         28.90400523         52.91500006          0.00000000
          78           1          8.41500006         29.86413874         51.70443222          0.00000000
          79           1          8.41500006         31.78440576         52.91500006          0.00000000
          80           1          6.75200007         32.74453926         51.70443222          0.00000000
          81           1          6.75200007         34.66480628         52.91500006          0.00000000
          82           1          8.41500006         35.62493979         51.70443222          0.00000000
          83           1          8.41500006         37.54520680         52.91500006          0.00000000
          84           1          6.75200007         38.50534031         51.70443222          0.00000000
          85           1         10.07800011          0.10000000         52.91500006          0.00000000
          86           1         11.74100009          1.06013351         51.70443222          0.00000000
          87           1         11.74100009          2.98040052         52.91500006          0.00000000
          88           1         10.07800011          3.94053403         51.70443222          0.00000000
          89           1         10.07800011          5.86080105         52.91500006          0.00000000
          90           1         11.74100009          6.82093456         51.70443222          0.00000000
          91           1         11.74100009          8.74120157         52.91500006          0.00000000
          92           1         10.07800011          9.70133508         51.70443222          0.00000000
          93           1         10.07800011         11.62160209         52.91500006          0.00000000
          94           1         11.74100009         12.58173560         51.70443222          0.00000000
          95           1         11.74100009         14.50200262         52.91500006          0.00000000
          96           1         10.07800011         15.46213613         51.70443222          0.00000000
          97           1         10.07800011         17.38240314         52.91500006          0.00000000
          98           1         11.74100009         18.34253665         51.70443222          0.00000000
          99           1         11.74100009         20.26280366         52.91500006          0.00000000
         100           1         10.07800011         21.22293717         51.70443222          0.00000000
         101           1         10.07800011         23.14320419         52.91500006          0.00000000
         102           1         11.74100009         24.10333769         51.70443222          0.00000000
         103           1         11.74100009         26.02360471         52.91500006          0.00000000
         104           1         10.07800011         26.98373822         51.70443222          0.00000000
         105           1         10.07800011         28.90400523         52.91500006          0.00000000
         106           1         11.74100009         29.86413874         51.70443222          0.00000000
         107           1         11.74100009         31.78440576         52.91500006          0.00000000
         108           1         10.07800011         32.74453926         51.70443222          0.00000000
         109           1         10.07800011         34.66480628         52.91500006          0.00000000
         110           1         11.74100009         35.62493979         51.70443222          0.00000000
         111           1         11.74100009         37.54520680         52.91500006          0.00000000
         112           1         10.07800011         38.50534031         51.70443222          0.00000000
         113           1         13.40400014          0.10000000         52.91500006          0.00000000
         114           1         15.06700013          1.06013351         51.70443222          0.00000000
         115           1         15.06700013          2.98040052         52.91500006          0.00000000
         116           1         13.40400014          3.94053403         51.70443222          0.00000000
         117           1         13.40400014          5.86080105         52.91500006          0.00000000
         118           1         15.06700013          6.82093456         51.70443222          0.00000000
         119           1         15.06700013          8.74120157         52.91500006          0.00000000
         120           1         13.40400014          9.70133508         51.70443222          0.00000000
         121           1         13.40400014         11.62160209         52.91500006          0.00000000
         122           1         15.06700013         12.58173560         51.70443222          0.00000000
         123           1         15.06700013         14.50200262         52.91500006          0.00000000
         124           1         13.40400014         15.46213613         51.70443222          0.00000000
         125           1         13.40400014         17.38240314         52.91500006          0.00000000
         126           1         15.06700013         18.34253665         51.70443222          0.00000000
         127           1         15.06700013         20.26280366         52.91500006          0.00000000
         128           1         13.40400014         21.22293717         51.70443222          0.00000000
         129           1         13.40400014         23.14320419         52.91500006          0.00000000
         130           1         15.06700013         24.10333769         51.70443222          0.00000000
         131           1         15.06700013         26.02360471         52.91500006          0.00000000
         132           1         13.40400014         26.98373822         51.70443222          0.00000000
         133           1         13.40400014         28.90400523         52.91500006          0.00000000
         134           1         15.06700013         29.86413874         51.70443222          0.00000000
         135           1         15.06700013         31.78440576         52.91500006          0.00000000
         136           1         13.40400014         32.74453926         51.70443222          0.00000000
         137           1         13.40400014         34.66480628         52.91500006          0.00000000
         138           1         15.06700013         35.62493979         51.70443222          0.00000000
         139           1         15.06700013         37.54520680         52.91500006          0.00000000
         140           1         13.40400014         38.50534031         51.70443222          0.00000000
         141           1         16.73000018          0.10000000         52.91500006          0.00000000
         142           1         18.39300016          1.06013351         51.70443222          0.00000000
         143           1         18.39300016          2.98040052         52.91500006          0.00000000
         144           1         16.73000018          3.94053403         51.70443222          0.00000000
         145           1         16.73000018          5.86080105         52.91500006          0.00000000
         146           1         18.39300016          6.82093456         51.70443222          0.00000000
         147           1         18.39300016          8.74120157         52.91500006          0.00000000
         148           1         16.73000018          9.70133508         51.70443222          0.00000000
         149           1         16.73000018         11.62160209         52.91500006          0.00000000
         150           1         18.39300016         12.58173560         51.70443222          0.00000000
         151           1         18.39300016         14.50200262         52.91500006          0.00000000
         152           1         16.73000018         15.46213613         51.70443222          0.00000000
         153           1         16.73000018         17.38240314         52.91500006          0.00000000
         154           1         18.39300016         18.34253665         51.70443222          0.00000000
         155           1         18.39300016         20.26280366         52.91500006          0.00000000
         156           1         16.73000018         21.22293717         51.70443222          0.00000000
         157           1         16.73000018         23.14320419         52.91500006          0.00000000
         158           1         18.39300016         24.10333769         51.70443222          0.00000000
         159           1         18.39300016         26.02360471         52.91500006          0.00000000
         160           1         16.73000018         26.98373822         51.70443222          0.00000000
         161           1         16.73000018         28.90400523         52.91500006          0.00000000
         162           1         18.39300016         29.86413874         51.70443222          0.00000000
         163           1         18.39300016         31.78440576         52.91500006          0.00000000
         164           1         16.73000018         32.74453926         51.70443222          0.00000000
         165           1         16.73000018         34.66480628         52.91500006          0.00000000
         166           1         18.39300016         35.62493979         51.70443222          0.00000000
         167           1         18.39300016         37.54520680         52.91500006          0.00000000
         168           1         16.73000018         38.50534031         51.70443222          0.00000000
         169           1         20.05600021          0.10000000         52.91500006          0.00000000
         170           1         21.71900020          1.06013351         51.70443222          0.00000000
         171           1         21.71900020          2.98040052         52.91500006          0.00000000
         172           1         20.05600021          3.94053403         51.70443222          0.00000000
         173           1         20.05600021          5.86080105         52.91500006          0.00000000
         174           1         21.71900020          6.82093456         51.70443222          0.00000000
         175           1         21.71900020          8.74120157         52.91500006          0.00000000
         176           1         20.05600021          9.70133508         51.70443222          0.00000000
         177           1         20.05600021         11.62160209         52.91500006          0.00000000
         178           1         21.71900020         12.58173560         51.70443222          0.00000000
         179           1         21.71900020         14.50200262         52.91500006          0.00000000
         180           1         20.05600021         15.46213613         51.70443222          0.00000000
         181           1         20.05600021         17.38240314         52.91500006          0.00000000
         182           1         21.71900020         18.34253665         51.70443222          0.00000000
         183           1         21.71900020         20.26280366         52.91500006          0.00000000
         184           1         20.05600021         21.22293717         51.70443222          0.00000000
         185           1         20.05600021         23.14320419         52.91500006          0.00000000
         186           1         21.71900020         24.10333769         51.70443222          0.00000000
         187           1         21.71900020         26.02360471         52.91500006          0.00000000
         188           1         20.05600021         26.98373822         51.70443222          0.00000000
         189           1         20.05600021         28.90400523         52.91500006          0.00000000
         190           1         21.71900020         29.86413874         51.70443222          0.00000000
         191           1         21.71900020         31.78440576         52.91500006          0.00000000
         192           1         20.05600021         32.74453926         51.70443222          0.00000000
         193           1         20.05600021         34.66480628         52.91500006          0.00000000
         194           1         21.71900020         35.62493979         51.70443222          0.00000000
         195           1         21.71900020         37.54520680         52.91500006          0.00000000
         196           1         20.05600021         38.50534031         51.70443222          0.00000000
         197           1         23.38200025          0.10000000         52.91500006          0.00000000
         198           1         25.04500023          1.06013351         51.70443222          0.00000000
         199           1         25.04500023          2.98040052         52.91500006          0.00000000
         200           1         23.38200025          3.94053403         51.70443222          0.00000000
         201           1         23.38200025          5.86080105         52.91500006          0.00000000
         202           1         25.04500023          6.82093456         51.70443222          0.00000000
         203           1         25.04500023          8.74120157         52.91500006          0.00000000
         204           1         23.38200025          9.70133508         51.70443222          0.00000000
         205           1         23.38200025         11.62160209         52.91500006          0.00000000
         206           1         25.04500023         12.58173560         51.70443222          0.00000000
         207           1         25.04500023         14.50200262         52.91500006          0.00000000
         208           1         23.38200025         15.46213613         51.70443222          0.00000000
         209           1         23.38200025         17.38240314         52.91500006          0.00000000
         210           1         25.04500023         18.34253665         51.70443222          0.00000000
         211           1         25.04500023         20.26280366         52.91500006          0.00000000
         212           1         23.38200025         21.22293717         51.70443222          0.00000000
         213           1         23.38200025         23.14320419         52.91500006          0.00000000
         214           1         25.04500023         24.10333769         51.70443222          0.00000000
         215           1         25.04500023         26.02360471         52.91500006          0.00000000
         216           1         23.38200025         26.98373822         51.70443222          0.00000000
         217           1         23.38200025         28.90400523         52.91500006          0.00000000
         218           1         25.04500023         29.86413874         51.70443222          0.00000000
         219           1         25.04500023         31.78440576         52.91500006          0.00000000
         220           1         23.38200025         32.74453926         51.70443222          0.00000000
         221           1         23.38200025         34.66480628         52.91500006          0.00000000
         222           1         25.04500023         35.62493979         51.70443222          0.00000000
         223           1         25.04500023         37.54520680         52.91500006          0.00000000
         224           1         23.38200025         38.50534031         51.70443222          0.00000000
         225           1         26.70800028          0.10000000         52.91500006          0.00000000
         226           1         28.37100027          1.06013351         51.70443222          0.00000000
         227           1         28.37100027          2.98040052         52.91500006          0.00000000
         228           1         26.70800028          3.94053403         51.70443222          0.00000000
         229           1         26.70800028          5.86080105         52.91500006          0.00000000
         230           1         28.37100027          6.82093456         51.70443222          0.00000000
         231           1         28.37100027          8.74120157         52.91500006          0.00000000
         232           1         26.70800028          9.70133508         51.70443222          0.00000000
         233           1         26.70800028         11.62160209         52.91500006          0.00000000
         234           1         28.37100027         12.58173560         51.70443222          0.00000000
         235           1         28.37100027         14.50200262         52.91500006          0.00000000
         236           1         26.70800028         15.46213613         51.70443222          0.00000000
         237           1         26.70800028         17.38240314         52.91500006          0.00000000
         238           1         28.37100027         18.34253665         51.70443222          0.00000000
         239           1         28.37100027         20.26280366         52.91500006          0.00000000
         240           1         26.70800028         21.22293717         51.70443222          0.00000000
         241           1         26.70800028         23.14320419         52.91500006          0.00000000
         242           1         28.37100027         24.10333769         51.70443222          0.00000000
         243           1         28.37100027         26.02360471         52.91500006          0.00000000
         244           1         26.70800028         26.98373822         51.70443222          0.00000000
         245           1         26.70800028         28.90400523         52.91500006          0.00000000
         246           1         28.37100027         29.86413874         51.70443222          0.00000000
         247           1         28.37100027         31.78440576         52.91500006          0.00000000
         248           1         26.70800028         32.74453926         51.70443222          0.00000000
         249           1         26.70800028         34.66480628         52.91500006          0.00000000
         250           1         28.37100027         35.62493979         51.70443222          0.00000000
         251           1         28.37100027         37.54520680         52.91500006          0.00000000
         252           1         26.70800028         38.50534031         51.70443222          0.00000000
         253           1         30.03400032          0.10000000         52.91500006          0.00000000
         254           1         31.69700030          1.06013351         51.70443222          0.00000000
         255           1         31.69700030          2.98040052         52.91500006          0.00000000
         256           1         30.03400032          3.94053403         51.70443222          0.00000000
         257           1         30.03400032          5.86080105         52.91500006          0.00000000
         258           1         31.69700030          6.82093456         51.70443222          0.00000000
         259           1         31.69700030          8.74120157         52.91500006          0.00000000
         260           1         30.03400032          9.70133508         51.70443222          0.00000000
         261           1         30.03400032         11.62160209         52.91500006          0.00000000
         262           1         31.69700030         12.58173560         51.70443222          0.00000000
         263           1         31.69700030         14.50200262         52.91500006          0.00000000
         264           1         30.03400032         15.46213613         51.70443222          0.00000000
         265           1         30.03400032         17.38240314         52.91500006          0.00000000
         266           1         31.69700030         18.34253665         51.70443222          0.00000000
         267           1         31.69700030         20.26280366         52.91500006          0.00000000
         268           1         30.03400032         21.22293717         51.70443222          0.00000000
         269           1         30.03400032         23.14320419         52.91500006          0.00000000
         270           1         31.69700030         24.10333769         51.70443222          0.00000000
         271           1         31.69700030         26.02360471         52.91500006          0.00000000
         272           1         30.03400032         26.98373822         51.70443222          0.00000000
         273           1         30.03400032         28.90400523         52.91500006          0.00000000
         274           1         31.69700030         29.86413874         51.70443222          0.00000000
         275           1         31.69700030         31.78440576         52.91500006          0.00000000
         276           1         30.03400032         32.74453926         51.70443222          0.00000000
         277           1         30.03400032         34.66480628         52.91500006          0.00000000
         278           1         31.69700030         35.62493979         51.70443222          0.00000000
         279           1         31.69700030         37.54520680         52.91500006          0.00000000
         280           1         30.03400032         38.50534031         51.70443222          0.00000000
         281           1         33.36000035          0.10000000         52.91500006          0.00000000
         282           1         35.02300034          1.06013351         51.70443222          0.00000000
         283           1         35.02300034          2.98040052         52.91500006          0.00000000