# structure data, .xsf formate, viewed by XCRYSDEN
# ntot =          364
ATOMS
          15          0.10000000          0.10000000         52.91500006
          15          1.76299999          1.06013351         51.70443222
          15          1.76299999          2.98040052         52.91500006
          15          0.10000000          3.94053403         51.70443222
          15          0.10000000          5.86080105         52.91500006
          15          1.76299999          6.82093456         51.70443222
          15          1.76299999          8.74120157         52.91500006
          15          0.10000000          9.70133508         51.70443222
          15          0.10000000         11.62160209         52.91500006
          15          1.76299999         12.58173560         51.70443222
          15          1.76299999         14.50200262         52.91500006
          15          0.10000000         15.46213613         51.70443222
          15          0.10000000         17.38240314         52.91500006
          15          1.76299999         18.34253665         51.70443222
          15          1.76299999         20.26280366         52.91500006
          15          0.10000000         21.22293717         51.70443222
          15          0.10000000         23.14320419         52.91500006
          15          1.76299999         24.10333769         51.70443222
          15          1.76299999         26.02360471         52.91500006
          15          0.10000000         26.98373822         51.70443222
          15          0.10000000         28.90400523         52.91500006
          15          1.76299999         29.86413874         51.70443222
          15          1.76299999         31.78440576         52.91500006
          15          0.10000000         32.74453926         51.70443222
          15          0.10000000         34.66480628         52.91500006
          15          1.76299999         35.62493979         51.70443222
          15          1.76299999         37.54520680         52.91500006
          15          0.10000000         38.50534031         51.70443222
          15          3.42600004          0.10000000         52.91500006
          15          5.08900002          1.06013351         51.70443222
          15          5.08900002          2.98040052         52.91500006
          15          3.42600004          3.94053403         51.70443222
          15          3.42600004          5.86080105         52.91500006
          15          5.08900002          6.82093456         51.70443222
          15          5.08900002          8.74120157         52.91500006
          15          3.42600004          9.70133508         51.70443222
          15          3.42600004         11.62160209         52.91500006
          15          5.08900002         12.58173560         51.70443222
          15          5.08900002         14.50200262         52.91500006
          15          3.42600004         15.46213613         51.70443222
          15          3.42600004         17.38240314         52.91500006
          15          5.08900002         18.34253665         51.70443222
          15          5.08900002         20.26280366         52.91500006
          15          3.42600004         21.22293717         51.70443222
          15          3.42600004         23.14320419         52.91500006
          15          5.08900002         24.10333769         51.70443222
          15          5.08900002         26.02360471         52.91500006
          15          3.42600004         26.98373822         51.70443222
          15          3.42600004         28.90400523         52.91500006
          15          5.08900002         29.86413874         51.70443222
          15          5.08900002         31.78440576         52.91500006
          15          3.42600004         32.74453926         51.70443222
          15          3.42600004         34.66480628         52.91500006
          15          5.08900002         35.62493979         51.70443222
          15          5.08900002         37.54520680         52.91500006
          15          3.42600004         38.50534031         51.70443222
          15          6.75200007          0.10000000         52.91500006
          15          8.41500006          1.06013351         51.70443222
          15          8.41500006          2.98040052         52.91500006
          15          6.75200007          3.94053403         51.70443222
          15          6.75200007          5.86080105         52.91500006
          15          8.41500006          6.82093456         51.70443222
          15          8.41500006          8.74120157         52.91500006
          15          6.75200007          9.70133508         51.70443222
          15          6.75200007         11.62160209         52.91500006
          15          8.41500006         12.58173560         51.70443222
          15          8.41500006         14.50200262         52.91500006
          15          6.75200007         15.46213613         51.70443222
          15          6.75200007         17.38240314         52.91500006
          15          8.41500006         18.34253665         51.70443222
          15          8.41500006         20.26280366         52.91500006
          15          6.75200007         21.22293717         51.70443222
          15          6.75200007         23.14320419         52.91500006
          15          8.41500006         24.10333769         51.70443222
          15          8.41500006         26.02360471         52.91500006
          15          6.75200007         26.98373822         51.70443222
          15          6.75200007         28.90400523         52.91500006
          15          8.41500006         29.86413874         51.70443222
          15          8.41500006         31.78440576         52.91500006
          15          6.75200007         32.74453926         51.70443222
          15          6.75200007         34.66480628         52.91500006
          15          8.41500006         35.62493979         51.70443222
          15          8.41500006         37.54520680         52.91500006
          15          6.75200007         38.50534031         51.70443222
          15         10.07800011          0.10000000         52.91500006
          15         11.74100009          1.06013351         51.70443222
          15         11.74100009          2.98040052         52.91500006
          15         10.07800011          3.94053403         51.70443222
          15         10.07800011          5.86080105         52.91500006
          15         11.74100009          6.82093456         51.70443222
          15         11.74100009          8.74120157         52.91500006
          15         10.07800011          9.70133508         51.70443222
          15         10.07800011         11.62160209         52.91500006
          15         11.74100009         12.58173560         51.70443222
          15         11.74100009         14.50200262         52.91500006
          15         10.07800011         15.46213613         51.70443222
          15         10.07800011         17.38240314         52.91500006
          15         11.74100009         18.34253665         51.70443222
          15         11.74100009         20.26280366         52.91500006
          15         10.07800011         21.22293717         51.70443222
          15         10.07800011         23.14320419         52.91500006
          15         11.74100009         24.10333769         51.70443222
          15         11.74100009         26.02360471         52.91500006
          15         10.07800011         26.98373822         51.70443222
          15         10.07800011         28.90400523         52.91500006
          15         11.74100009         29.86413874         51.70443222
          15         11.74100009         31.78440576         52.91500006
          15         10.07800011         32.74453926         51.70443222
          15         10.07800011         34.66480628         52.91500006
          15         11.74100009         35.62493979         51.70443222
          15         11.74100009         37.54520680         52.91500006
          15         10.07800011         38.50534031         51.70443222
          15         13.40400014          0.10000000         52.91500006
          15         15.06700013          1.06013351         51.70443222
          15         15.06700013          2.98040052         52.91500006
          15         13.40400014          3.94053403         51.70443222
          15         13.40400014          5.86080105         52.91500006
          15         15.06700013          6.82093456         51.70443222
          15         15.06700013          8.74120157         52.91500006
          15         13.40400014          9.70133508         51.70443222
          15         13.40400014         11.62160209         52.91500006
          15         15.06700013         12.58173560         51.70443222
          15         15.06700013         14.50200262         52.91500006
          15         13.40400014         15.46213613         51.70443222
          15         13.40400014         17.38240314         52.91500006
          15         15.06700013         18.34253665         51.70443222
          15         15.06700013         20.26280366         52.91500006
          15         13.40400014         21.22293717         51.70443222
          15         13.40400014         23.14320419         52.91500006
          15         15.06700013         24.10333769         51.70443222
          15         15.06700013         26.02360471         52.91500006
          15         13.40400014         26.98373822         51.70443222
          15         13.40400014         28.90400523         52.91500006
          15         15.06700013         29.86413874         51.70443222
          15         15.06700013         31.78440576         52.91500006
          15         13.40400014         32.74453926         51.70443222
          15         13.40400014         34.66480628         52.91500006
          15         15.06700013         35.62493979         51.70443222
          15         15.06700013         37.54520680         52.91500006
          15         13.40400014         38.50534031         51.70443222
          15         16.73000018          0.10000000         52.91500006
          15         18.39300016          1.06013351         51.70443222
          15         18.39300016          2.98040052         52.91500006
          15         16.73000018          3.94053403         51.70443222
          15         16.73000018          5.86080105         52.91500006
          15         18.39300016          6.82093456         51.70443222
          15         18.39300016          8.74120157         52.91500006
          15         16.73000018          9.70133508         51.70443222
          15         16.73000018         11.62160209         52.91500006
          15         18.39300016         12.58173560         51.70443222
          15         18.39300016         14.50200262         52.91500006
          15         16.73000018         15.46213613         51.70443222
          15         16.73000018         17.38240314         52.91500006
          15         18.39300016         18.34253665         51.70443222
          15         18.39300016         20.26280366         52.91500006
          15         16.73000018         21.22293717         51.70443222
          15         16.73000018         23.14320419         52.91500006
          15         18.39300016         24.10333769         51.70443222
          15         18.39300016         26.02360471         52.91500006
          15         16.73000018         26.98373822         51.70443222
          15         16.73000018         28.90400523         52.91500006
          15         18.39300016         29.86413874         51.70443222
          15         18.39300016         31.78440576         52.91500006
          15         16.73000018         32.74453926         51.70443222
          15         16.73000018         34.66480628         52.91500006
          15         18.39300016         35.62493979         51.70443222
          15         18.39300016         37.54520680         52.91500006
          15         16.73000018         38.50534031         51.70443222
          15         20.05600021          0.10000000         52.91500006
          15         21.71900020          1.06013351         51.70443222
          15         21.71900020          2.98040052         52.91500006
          15         20.05600021          3.94053403         51.70443222
          15         20.05600021          5.86080105         52.91500006
          15         21.71900020          6.82093456         51.70443222
          15         21.71900020          8.74120157         52.91500006
          15         20.05600021          9.70133508         51.70443222
          15         20.05600021         11.62160209         52.91500006
          15         21.71900020         12.58173560         51.70443222
          15         21.71900020         14.50200262         52.91500006
          15         20.05600021         15.46213613         51.70443222
          15         20.05600021         17.38240314         52.91500006
          15         21.71900020         18.34253665         51.70443222
          15         21.71900020         20.26280366         52.91500006
          15         20.05600021         21.22293717         51.70443222
          15         20.05600021         23.14320419         52.91500006
          15         21.71900020         24.10333769         51.70443222
          15         21.71900020         26.02360471         52.91500006
          15         20.05600021         26.98373822         51.70443222
          15         20.05600021         28.90400523         52.91500006
          15         21.71900020         29.86413874         51.70443222
          15         21.71900020         31.78440576         52.91500006
          15         20.05600021         32.74453926         51.70443222
          15         20.05600021         34.66480628         52.91500006
          15         21.71900020         35.62493979         51.70443222
          15         21.71900020         37.54520680         52.91500006
          15         20.05600021         38.50534031         51.70443222
          15         23.38200025          0.10000000         52.91500006
          15         25.04500023          1.06013351         51.70443222
          15         25.04500023          2.98040052         52.91500006
          15         23.38200025          3.94053403         51.70443222
          15         23.38200025          5.86080105         52.91500006
          15         25.04500023          6.82093456         51.70443222
          15         25.04500023          8.74120157         52.91500006
          15         23.38200025          9.70133508         51.70443222
          15         23.38200025         11.62160209         52.91500006
          15         25.04500023         12.58173560         51.70443222
          15         25.04500023         14.50200262         52.91500006
          15         23.38200025         15.46213613         51.70443222
          15         23.38200025         17.38240314         52.91500006
          15         25.04500023         18.34253665         51.70443222
          15         25.04500023         20.26280366         52.91500006
          15         23.38200025         21.22293717         51.70443222
          15         23.38200025         23.14320419         52.91500006
          15         25.04500023         24.10333769         51.70443222
          15         25.04500023         26.02360471         52.91500006
          15         23.38200025         26.98373822         51.70443222
          15         23.38200025         28.90400523         52.91500006
          15         25.04500023         29.86413874         51.70443222
          15         25.04500023         31.78440576         52.91500006
          15         23.38200025         32.74453926         51.70443222
          15         23.38200025         34.66480628         52.91500006
          15         25.04500023         35.62493979         51.70443222
          15         25.04500023         37.54520680         52.91500006
          15         23.38200025         38.50534031         51.70443222
          15         26.70800028          0.10000000         52.91500006
          15         28.37100027          1.06013351         51.70443222
          15         28.37100027          2.98040052         52.91500006
          15         26.70800028          3.94053403         51.70443222
          15         26.70800028          5.86080105         52.91500006
          15         28.37100027          6.82093456         51.70443222
          15         28.37100027          8.74120157         52.91500006
          15         26.70800028          9.70133508         51.70443222
          15         26.70800028         11.62160209         52.91500006
          15         28.37100027         12.58173560         51.70443222
          15         28.37100027         14.50200262         52.91500006
          15         26.70800028         15.46213613         51.70443222
          15         26.70800028         17.38240314         52.91500006
          15         28.37100027         18.34253665         51.70443222
          15         28.37100027         20.26280366         52.91500006
          15         26.70800028         21.22293717         51.70443222
          15         26.70800028         23.14320419         52.91500006
          15         28.37100027         24.10333769         51.70443222
          15         28.37100027         26.02360471         52.91500006
          15         26.70800028         26.98373822         51.70443222
          15         26.70800028         28.90400523         52.91500006
          15         28.37100027         29.86413874         51.70443222
          15         28.37100027         31.78440576         52.91500006
          15         26.70800028         32.74453926         51.70443222
          15         26.70800028         34.66480628         52.91500006
          15         28.37100027         35.62493979         51.70443222
          15         28.37100027         37.54520680         52.91500006
          15         26.70800028         38.50534031         51.70443222
          15         30.03400032          0.10000000         52.91500006
          15         31.69700030          1.06013351         51.70443222
          15         31.69700030          2.98040052         52.91500006
          15         30.03400032          3.94053403         51.70443222
          15         30.03400032          5.86080105         52.91500006
          15         31.69700030          6.82093456         51.70443222
          15         31.69700030          8.74120157         52.91500006
          15         30.03400032          9.70133508         51.70443222
          15         30.03400032         11.62160209         52.91500006
          15         31.69700030         12.58173560         51.70443222
          15         31.69700030         14.50200262         52.91500006
          15         30.03400032         15.46213613         51.70443222
          15         30.03400032         17.38240314         52.91500006
          15         31.69700030         18.34253665         51.70443222
          15         31.69700030         20.26280366         52.91500006
          15         30.03400032         21.22293717         51.70443222
          15         30.03400032         23.14320419         52.91500006
          15         31.69700030         24.10333769         51.70443222
          15         31.69700030         26.02360471         52.91500006
          15         30.03400032         26.98373822         51.70443222
          15         30.03400032         28.90400523         52.91500006
          15         31.69700030         29.86413874         51.70443222
          15         31.69700030         31.78440576         52.91500006
          15         30.03400032         32.74453926         51.70443222
          15         30.03400032         34.66480628         52.91500006
          15         31.69700030         35.62493979         51.70443222
          15         31.69700030         37.54520680         52.91500006
          15         30.03400032         38.50534031         51.70443222
          15         33.36000035          0.10000000         52.91500006
          15         35.02300034          1.06013351         51.70443222
          15         35.02300034          2.98040052         52.91500006
          15         33.36000035          3.94053403         51.70443222
          15         33.36000035          5.86080105         52.91500006
          15         35.02300034          6.82093456         51.70443222
          15         35.02300034          8.74120157         52.91500006
          15         33.36000035          9.70133508         51.70443222
          15         33.36000035         11.62160209         52.91500006
          15         35.02300034         12.58173560         51.70443222
          15         35.02300034         14.50200262         52.91500006
          15         33.36000035         15.46213613         51.70443222
          15         33.36000035         17.38240314         52.91500006
          15         35.02300034         18.34253665         51.70443222
          15         35.02300034         20.26280366         52.91500006
          15         33.36000035         21.22293717         51.70443222
          15         33.36000035         23.14320419         52.91500006
          15         35.02300034         24.10333769         51.70443222
          15         35.02300034         26.02360471         52.91500006
          15         33.36000035         26.98373822         51.70443222
          15         33.36000035         28.90400523         52.91500006
          15         35.02300034         29.86413874         51.70443222
          15         35.02300034         31.78440576         52.91500006
          15         33.36000035         32.74453926         51.70443222
          15         33.36000035         34.66480628         52.91500006
          15         35.02300034         35.62493979         51.70443222
          15         35.02300034         37.54520680         52.91500006
          15         33.36000035         38.50534031         51.70443222
          15         36.68600039          0.10000000         52.91500006
          15         38.34900037          1.06013351         51.70443222
          15         38.34900037          2.98040052         52.91500006
          15         36.68600039          3.94053403         51.70443222
          15         36.68600039          5.86080105         52.91500006
          15         38.34900037          6.82093456         51.70443222
          15         38.34900037          8.74120157         52.91500006
          15         36.68600039          9.70133508         51.70443222
          15         36.68600039         11.62160209         52.91500006
          15         38.34900037         12.58173560         51.70443222
          15         38.34900037         14.50200262         52.91500006
          15         36.68600039         15.46213613         51.70443222
          15         36.68600039         17.38240314         52.91500006
          15         38.34900037         18.34253665         51.70443222
          15         38.34900037         20.26280366         52.91500006
          15         36.68600039         21.22293717         51.70443222
          15         36.68600039         23.14320419         52.91500006
          15         38.34900037         24.10333769         51.70443222
          15         38.34900037         26.02360471         52.91500006
          15         36.68600039         26.98373822         51.70443222
          15         36.68600039         28.90400523         52.91500006
          15         38.34900037         29.86413874         51.70443222
          15         38.34900037         31.78440576         52.91500006
          15         36.68600039         32.74453926         51.70443222
          15         36.68600039         34.66480628         52.91500006
          15         38.34900037         35.62493979         51.70443222
          15         38.34900037         37.54520680         52.91500006
          15         36.68600039         38.50534031         51.70443222
          15         40.01200042          0.10000000         52.91500006
          15         41.67500041          1.06013351         51.70443222
          15         41.67500041          2.98040052         52.91500006
          15         40.01200042          3.94053403         51.70443222
          15         40.01200042          5.86080105         52.91500006
          15         41.67500041          6.82093456         51.70443222
          15         41.67500041          8.74120157         52.91500006
          15         40.01200042          9.70133508         51.70443222
          15         40.01200042         11.62160209         52.91500006
          15         41.67500041         12.58173560         51.70443222
          15         41.67500041         14.50200262         52.91500006
          15         40.01200042         15.46213613         51.70443222
          15         40.01200042         17.38240314         52.91500006
          15         41.67500041         18.34253665         51.70443222
          15         41.67500041         20.26280366         52.91500006
          15         40.01200042         21.22293717         51.70443222
          15         40.01200042         23.14320419         52.91500006
          15         41.67500041         24.10333769         51.70443222
          15         41.67500041         26.02360471         52.91500006
          15         40.01200042         26.98373822         51.70443222
          15         40.01200042         28.90400523         52.91500006
          15         41.67500041         29.86413874         51.70443222
          15         41.67500041         31.78440576         52.91500006
          15         40.01200042         32.74453926         51.70443222
          15         40.01200042         34.66480628         52.91500006
          15         41.67500041         35.62493979         51.70443222
          15         41.67500041         37.54520680         52.91500006
          15         40.01200042         38.50534031         51.70443222
